[Molden Format]
[Atoms] AU
C  1 6  -5.24421516  -0.00948652 -13.38012298
C  2 6  -5.26150009   0.11162494 -10.56147218
C  3 6  -5.32644757   2.24633238  -9.19389634
N  4 7  -5.30446183   2.23842619  -6.60198056
H  5 1  -5.31678994   3.85262660  -5.62006866
C  6 6  -5.24062258   0.07592347  -5.16481654
O  7 8  -5.21364442   0.08678449  -2.88890472
N  8 7  -5.21834873  -2.08738333  -6.59417877
H  9 1  -5.20882574  -3.72078995  -5.62850192
C  10 6  -5.21646678  -2.29179924  -9.21355372
O  11 8  -5.19000375  -4.34990274 -10.20517190
H  12 1  -3.34991513  -0.36327648 -14.10406701
H  13 1  -6.40837159  -1.58244482 -13.99948751
H  14 1  -5.94015940   1.72514203 -14.22821957
H  15 1  -5.39924217   4.08982844 -10.04682326
[GTO]
1
s 6
    3.047524902344e+03     1.834737136960e-03
    4.573695068359e+02     1.403732318431e-02
    1.039486846924e+02     6.884261965752e-02
    2.921015548706e+01     2.321844398975e-01
    9.286663055420e+00     4.679413437843e-01
    3.163927078247e+00     3.623119890690e-01
s 3
    7.868272304535e+00    -1.193324178457e-01
    1.881288528442e+00    -1.608541458845e-01
    5.442492365837e-01     1.143456459045e+00
p 3
    7.868272304535e+00     6.899906694889e-02
    1.881288528442e+00     3.164239525795e-01
    5.442492365837e-01     7.443082928658e-01
s 1
    1.687144786119e-01     1.000000000000e+00
p 1
    1.687144786119e-01     1.000000000000e+00
d 1
    8.000000119209e-01     1.000000000000e+00

2
s 6
    3.047524902344e+03     1.834737136960e-03
    4.573695068359e+02     1.403732318431e-02
    1.039486846924e+02     6.884261965752e-02
    2.921015548706e+01     2.321844398975e-01
    9.286663055420e+00     4.679413437843e-01
    3.163927078247e+00     3.623119890690e-01
s 3
    7.868272304535e+00    -1.193324178457e-01
    1.881288528442e+00    -1.608541458845e-01
    5.442492365837e-01     1.143456459045e+00
p 3
    7.868272304535e+00     6.899906694889e-02
    1.881288528442e+00     3.164239525795e-01
    5.442492365837e-01     7.443082928658e-01
s 1
    1.687144786119e-01     1.000000000000e+00
p 1
    1.687144786119e-01     1.000000000000e+00
d 1
    8.000000119209e-01     1.000000000000e+00

3
s 6
    3.047524902344e+03     1.834737136960e-03
    4.573695068359e+02     1.403732318431e-02
    1.039486846924e+02     6.884261965752e-02
    2.921015548706e+01     2.321844398975e-01
    9.286663055420e+00     4.679413437843e-01
    3.163927078247e+00     3.623119890690e-01
s 3
    7.868272304535e+00    -1.193324178457e-01
    1.881288528442e+00    -1.608541458845e-01
    5.442492365837e-01     1.143456459045e+00
p 3
    7.868272304535e+00     6.899906694889e-02
    1.881288528442e+00     3.164239525795e-01
    5.442492365837e-01     7.443082928658e-01
s 1
    1.687144786119e-01     1.000000000000e+00
p 1
    1.687144786119e-01     1.000000000000e+00
d 1
    8.000000119209e-01     1.000000000000e+00

4
s 6
    4.173511230469e+03     1.834772177972e-03
    6.274578857422e+02     1.399462670088e-02
    1.429020996094e+02     6.858655065298e-02
    4.023432922363e+01     2.322408705950e-01
    1.282021331787e+01     4.690699577332e-01
    4.390437126160e+00     3.604551851749e-01
s 3
    1.162636184692e+01    -1.149611845613e-01
    2.716279745102e+00    -1.691174805164e-01
    7.722184062004e-01     1.145851969719e+00
p 3
    1.162636184692e+01     6.757974624634e-02
    2.716279745102e+00     3.239072859287e-01
    7.722184062004e-01     7.408951520920e-01
s 1
    2.120314985514e-01     1.000000000000e+00
p 1
    2.120314985514e-01     1.000000000000e+00
d 1
    8.000000119209e-01     1.000000000000e+00

5
s 3
    1.873113632202e+01     3.349460288882e-02
    2.825394392014e+00     2.347269505262e-01
    6.401216983795e-01     8.137573003769e-01
s 1
    1.612777560949e-01     1.000000000000e+00

6
s 6
    3.047524902344e+03     1.834737136960e-03
    4.573695068359e+02     1.403732318431e-02
    1.039486846924e+02     6.884261965752e-02
    2.921015548706e+01     2.321844398975e-01
    9.286663055420e+00     4.679413437843e-01
    3.163927078247e+00     3.623119890690e-01
s 3
    7.868272304535e+00    -1.193324178457e-01
    1.881288528442e+00    -1.608541458845e-01
    5.442492365837e-01     1.143456459045e+00
p 3
    7.868272304535e+00     6.899906694889e-02
    1.881288528442e+00     3.164239525795e-01
    5.442492365837e-01     7.443082928658e-01
s 1
    1.687144786119e-01     1.000000000000e+00
p 1
    1.687144786119e-01     1.000000000000e+00
d 1
    8.000000119209e-01     1.000000000000e+00

7
s 6
    5.484671875000e+03     1.831074478105e-03
    8.252349243164e+02     1.395017188042e-02
    1.880469512939e+02     6.844507902861e-02
    5.296450042725e+01     2.327143400908e-01
    1.689756965637e+01     4.701929092407e-01
    5.799635410309e+00     3.585208654404e-01
s 3
    1.553961658478e+01    -1.107775494456e-01
    3.599933624268e+00    -1.480262577534e-01
    1.013761758804e+00     1.130766987801e+00
p 3
    1.553961658478e+01     7.087426632643e-02
    3.599933624268e+00     3.397528529167e-01
    1.013761758804e+00     7.271586060524e-01
s 1
    2.700058221817e-01     1.000000000000e+00
p 1
    2.700058221817e-01     1.000000000000e+00
d 1
    8.000000119209e-01     1.000000000000e+00

8
s 6
    4.173511230469e+03     1.834772177972e-03
    6.274578857422e+02     1.399462670088e-02
    1.429020996094e+02     6.858655065298e-02
    4.023432922363e+01     2.322408705950e-01
    1.282021331787e+01     4.690699577332e-01
    4.390437126160e+00     3.604551851749e-01
s 3
    1.162636184692e+01    -1.149611845613e-01
    2.716279745102e+00    -1.691174805164e-01
    7.722184062004e-01     1.145851969719e+00
p 3
    1.162636184692e+01     6.757974624634e-02
    2.716279745102e+00     3.239072859287e-01
    7.722184062004e-01     7.408951520920e-01
s 1
    2.120314985514e-01     1.000000000000e+00
p 1
    2.120314985514e-01     1.000000000000e+00
d 1
    8.000000119209e-01     1.000000000000e+00

9
s 3
    1.873113632202e+01     3.349460288882e-02
    2.825394392014e+00     2.347269505262e-01
    6.401216983795e-01     8.137573003769e-01
s 1
    1.612777560949e-01     1.000000000000e+00

10
s 6
    3.047524902344e+03     1.834737136960e-03
    4.573695068359e+02     1.403732318431e-02
    1.039486846924e+02     6.884261965752e-02
    2.921015548706e+01     2.321844398975e-01
    9.286663055420e+00     4.679413437843e-01
    3.163927078247e+00     3.623119890690e-01
s 3
    7.868272304535e+00    -1.193324178457e-01
    1.881288528442e+00    -1.608541458845e-01
    5.442492365837e-01     1.143456459045e+00
p 3
    7.868272304535e+00     6.899906694889e-02
    1.881288528442e+00     3.164239525795e-01
    5.442492365837e-01     7.443082928658e-01
s 1
    1.687144786119e-01     1.000000000000e+00
p 1
    1.687144786119e-01     1.000000000000e+00
d 1
    8.000000119209e-01     1.000000000000e+00

11
s 6
    5.484671875000e+03     1.831074478105e-03
    8.252349243164e+02     1.395017188042e-02
    1.880469512939e+02     6.844507902861e-02
    5.296450042725e+01     2.327143400908e-01
    1.689756965637e+01     4.701929092407e-01
    5.799635410309e+00     3.585208654404e-01
s 3
    1.553961658478e+01    -1.107775494456e-01
    3.599933624268e+00    -1.480262577534e-01
    1.013761758804e+00     1.130766987801e+00
p 3
    1.553961658478e+01     7.087426632643e-02
    3.599933624268e+00     3.397528529167e-01
    1.013761758804e+00     7.271586060524e-01
s 1
    2.700058221817e-01     1.000000000000e+00
p 1
    2.700058221817e-01     1.000000000000e+00
d 1
    8.000000119209e-01     1.000000000000e+00

12
s 3
    1.873113632202e+01     3.349460288882e-02
    2.825394392014e+00     2.347269505262e-01
    6.401216983795e-01     8.137573003769e-01
s 1
    1.612777560949e-01     1.000000000000e+00

13
s 3
    1.873113632202e+01     3.349460288882e-02
    2.825394392014e+00     2.347269505262e-01
    6.401216983795e-01     8.137573003769e-01
s 1
    1.612777560949e-01     1.000000000000e+00

14
s 3
    1.873113632202e+01     3.349460288882e-02
    2.825394392014e+00     2.347269505262e-01
    6.401216983795e-01     8.137573003769e-01
s 1
    1.612777560949e-01     1.000000000000e+00

15
s 3
    1.873113632202e+01     3.349460288882e-02
    2.825394392014e+00     2.347269505262e-01
    6.401216983795e-01     8.137573003769e-01
s 1
    1.612777560949e-01     1.000000000000e+00

[MO]
Ene=    -19.68440402
Spin= Alpha
Occup=      1.00000000
1      0.00000244
2      0.00001725
3     -0.00000047
4     -0.00000055
5     -0.00000723
6     -0.00008976
7      0.00000158
8     -0.00000208
9     -0.00004713
10      0.00000296
11      0.00000460
12     -0.00001161
13     -0.00000014
14      0.00000034
15     -0.00000094
16      0.00000350
17      0.00000852
18      0.00000036
19     -0.00000822
20      0.00003141
21      0.00046624
22     -0.00000062
23      0.00001632
24      0.00006390
25      0.00001740
26     -0.00002997
27      0.00003237
28      0.00000135
29     -0.00000020
30     -0.00000306
31      0.00002452
32      0.00009895
33      0.00000125
34     -0.00002108
35      0.00008651
36     -0.00013922
37     -0.00001139
38      0.00034068
39     -0.00001281
40      0.00005119
41      0.00001375
42      0.00007564
43      0.00000134
44     -0.00000082
45      0.00003320
46      0.00000245
47      0.00003790
48     -0.00000070
49     -0.00000514
50     -0.00004760
51     -0.00049296
52     -0.00000006
53      0.00030656
54      0.00043441
55     -0.00001272
56      0.00008209
57     -0.00011195
58     -0.00000176
59     -0.00000222
60      0.00004358
61     -0.00005571
62     -0.00011271
63     -0.00002054
64      0.00040379
65     -0.00000156
66      0.00000182
67     -0.00010106
68     -0.00223164
69     -0.00003793
70      0.00000337
71     -0.00322459
72     -0.00007067
73     -0.00003118
74     -0.00104401
75     -0.00000103
76     -0.00001321
77     -0.00000729
78      0.99350089
79      0.02367584
80     -0.00001809
81      0.00000510
82     -0.00144829
83      0.01131945
84     -0.00001519
85     -0.00001272
86     -0.00129360
87     -0.00660090
88     -0.00654071
89     -0.00596168
90     -0.00000156
91      0.00000867
92      0.00000276
93      0.00000404
94      0.00004582
95     -0.00000072
96      0.00000831
97     -0.00004839
98     -0.00052067
99      0.00000857
100     -0.00026695
101      0.00048107
102     -0.00000872
103      0.00008998
104     -0.00011562
105     -0.00000164
106     -0.00000023
107     -0.00004742
108     -0.00005383
109     -0.00011778
110      0.00003051
111      0.00010301
112     -0.00000015
113      0.00000762
114      0.00008367
115      0.00011669
116      0.00000477
117     -0.00048245
118     -0.00005697
119      0.00005595
120      0.00004561
121      0.00010192
122      0.00000018
123     -0.00000062
124     -0.00000432
125      0.00000851
126      0.00008805
127     -0.00000002
128      0.00000069
129      0.00000264
130     -0.00056116
131      0.00000194
132     -0.00012936
133     -0.00008708
134      0.00005750
135      0.00003458
136      0.00005525
137      0.00000037
138      0.00000016
139     -0.00001345
140      0.00000510
141     -0.00000182
142      0.00000501
143     -0.00000391
144      0.00000120
145      0.00000928
146     -0.00001628
147     -0.00014757
Ene=    -19.66914779
Spin= Alpha
Occup=      1.00000000
1     -0.00000864
2     -0.00004665
3     -0.00001914
4      0.00002937
5      0.00003674
6      0.00093605
7      0.00009348
8     -0.00002489
9      0.00045228
10     -0.00000813
11     -0.00002623
12      0.00002679
13      0.00000807
14     -0.00000130
15      0.00002177
16     -0.00000237
17     -0.00005132
18      0.00000117
19     -0.00003271
20     -0.00005660
21      0.00110997
22     -0.00003468
23      0.00028072
24      0.00181586
25      0.00000669
26      0.00009146
27     -0.00004100
28     -0.00000316
29      0.00000254
30      0.00004789
31     -0.00001081
32     -0.00005071
33     -0.00000154
34      0.00006203
35      0.00002611
36     -0.00093724
37     -0.00000865
38      0.00034970
39     -0.00002925
40     -0.00002767
41     -0.00000672
42     -0.00003454
43     -0.00000077
44      0.00000085
45     -0.00003774
46     -0.00000885
47     -0.00003671
48     -0.00000026
49      0.00001833
50      0.00000543
51      0.00016208
52     -0.00000133
53     -0.00006268
54     -0.00010104
55     -0.00003206
56     -0.00002160
57      0.00001246
58     -0.00000038
59      0.00000097
60     -0.00002401
61      0.00001550
62      0.00001672
63     -0.00003127
64     -0.00010386
65     -0.00000109
66      0.00006503
67      0.00005028
68     -0.00030353
69     -0.00000092
70      0.00013724
71     -0.00028115
72     -0.00005560
73     -0.00009736
74     -0.00006407
75      0.00000035
76     -0.00000031
77     -0.00002600
78     -0.00002831
79     -0.00008035
80      0.00000035
81      0.00000200
82      0.00000014
83      0.00048627
84     -0.00000339
85     -0.00002045
86     -0.00015119
87     -0.00005546
88     -0.00005549
89     -0.00001860
90     -0.00000003
91      0.00000078
92     -0.00000140
93     -0.00000775
94     -0.00007029
95      0.00000109
96     -0.00004671
97     -0.00003153
98      0.00076869
99     -0.00001244
100      0.00068485
101     -0.00011681
102     -0.00000071
103      0.00002878
104      0.00002391
105     -0.00000001
106     -0.00000043
107      0.00010906
108      0.00005793
109      0.00015504
110      0.00003168
111     -0.00034660
112     -0.00000136
113     -0.00006181
114     -0.00004503
115      0.00155301
116      0.00006351
117     -0.00350790
118     -0.00158672
119      0.00009717
120      0.00080200
121      0.00022733
122     -0.00000898
123     -0.00000574
124      0.00042452
125     -0.99348598
126     -0.02361475
127      0.00001741
128     -0.00124172
129     -0.00062059
130     -0.01166737
131      0.00001150
132     -0.00119835
133     -0.00057922
134      0.00664663
135      0.00613771
136      0.00647199
137      0.00000770
138      0.00000124
139     -0.00024205
140     -0.00002761
141     -0.00007553
142     -0.00007200
143      0.00010850
144     -0.00001126
145      0.00005219
146     -0.00000179
147     -0.00002775
Ene=    -14.88863974
Spin= Alpha
Occup=      1.00000000
1     -0.00000147
2     -0.00000059
3     -0.00000134
4     -0.00000704
5     -0.00001535
6     -0.00036063
7      0.00001149
8      0.00001563
9     -0.00012222
10     -0.00000913
11     -0.00000766
12      0.00000657
13     -0.00000218
14      0.00000041
15     -0.00000367
16      0.00001473
17      0.00010933
18      0.00000142
19     -0.00003272
20     -0.00000230
21     -0.00120176
22     -0.00000190
23     -0.00003264
24     -0.00102093
25      0.00001475
26     -0.00001114
27     -0.00005079
28     -0.00000030
29      0.00000148
30     -0.00003651
31      0.00002099
32      0.00016479
33      0.00000205
34     -0.00000705
35      0.00028729
36      0.00117842
37      0.00003707
38     -0.00092782
39      0.00043535
40     -0.00005430
41      0.00001105
42      0.00003405
43     -0.00000328
44      0.00000102
45     -0.00000781
46      0.99357696
47      0.03122770
48      0.00001630
49     -0.00008305
50     -0.00001117
51      0.00008138
52     -0.00002658
53      0.00084979
54      0.00021480
55     -0.00634638
56     -0.00636238
57     -0.00640956
58      0.00000112
59     -0.00000065
60      0.00003429
61      0.00026007
62     -0.00034122
63      0.00002632
64      0.00019544
65     -0.00000800
66      0.00026171
67     -0.00017030
68      0.00049867
69     -0.00002104
70      0.00075214
71     -0.00087620
72     -0.00004019
73      0.00001425
74      0.00003685
75     -0.00000155
76      0.00000140
77     -0.00000342
78     -0.00002067
79     -0.00009815
80      0.00000040
81      0.00000198
82      0.00003328
83      0.00066506
84      0.00000245
85     -0.00024097
86     -0.00010019
87     -0.00007468
88     -0.00007191
89     -0.00009888
90      0.00000101
91     -0.00000171
92      0.00008046
93     -0.00019357
94      0.00000478
95      0.00000051
96     -0.00004237
97     -0.00002975
98     -0.00025987
99      0.00000456
100     -0.00018340
101      0.00046564
102     -0.00002135
103     -0.00004130
104      0.00002391
105      0.00000102
106      0.00000077
107      0.00000109
108     -0.00005247
109     -0.00001935
110      0.00000137
111     -0.00000336
112     -0.00000095
113      0.00001093
114      0.00001718
115      0.00076715
116     -0.00000407
117      0.00043280
118      0.00014665
119      0.00000315
120      0.00001668
121      0.00000698
122     -0.00000003
123      0.00000015
124     -0.00000594
125     -0.00000502
126     -0.00002028
127     -0.00000010
128     -0.00000004
129     -0.00000639
130      0.00015340
131     -0.00000034
132     -0.00000685
133      0.00003047
134     -0.00001479
135     -0.00002265
136     -0.00000845
137      0.00000010
138     -0.00000021
139     -0.00000083
140      0.00000568
141     -0.00000316
142      0.00000690
143      0.00001897
144      0.00000019
145      0.00000494
146      0.00001167
147      0.00031622
Ene=    -14.85112131
Spin= Alpha
Occup=      1.00000000
1     -0.00000634
2     -0.00002187
3     -0.00000396
4      0.00001659
5     -0.00002895
6     -0.00033204
7      0.00003276
8     -0.00004739
9     -0.00009448
10     -0.00001919
11     -0.00000903
12     -0.00000356
13      0.00000263
14     -0.00000157
15      0.00000718
16      0.00000761
17      0.00007516
18      0.00000026
19      0.00004157
20      0.00000126
21     -0.00078192
22      0.00000058
23     -0.00040512
24     -0.00096250
25     -0.00000006
26     -0.00000853
27     -0.00005665
28      0.00000058
29      0.00000070
30      0.00002929
31      0.00000477
32      0.00001672
33      0.00000047
34     -0.00001942
35      0.00000893
36      0.00098141
37      0.00001776
38     -0.00035574
39      0.00002078
40      0.00000870
41      0.00001211
42      0.00000560
43     -0.00000127
44     -0.00000020
45      0.00001609
46      0.00019861
47      0.00000812
48     -0.00000110
49      0.00004443
50     -0.00002860
51     -0.00018772
52     -0.00000007
53      0.00016905
54      0.00042850
55     -0.00002944
56     -0.00004862
57      0.00002211
58      0.00000024
59      0.00000138
60      0.00000140
61     -0.00005143
62     -0.00001791
63      0.00002652
64      0.00021686
65      0.00000281
66     -0.00025075
67     -0.00016671
68      0.00045261
69      0.00000415
70     -0.00072329
71     -0.00086518
72     -0.00004048
73     -0.00001577
74      0.00002385
75     -0.00000119
76      0.00000159
77     -0.00001890
78     -0.00002091
79     -0.00010003
80      0.00000028
81     -0.00000042
82      0.00003281
83      0.00067756
84     -0.00000592
85      0.00023873
86     -0.00010998
87     -0.00007702
88     -0.00007435
89     -0.00009546
90     -0.00000096
91      0.00000146
92     -0.00008602
93      0.99355606
94      0.03138308
95     -0.00000460
96      0.00017570
97      0.00005357
98     -0.00026095
99      0.00000990
100     -0.00079841
101      0.00036906
102     -0.00634618
103     -0.00638595
104     -0.00645871
105      0.00000030
106      0.00000057
107     -0.00002705
108      0.00028076
109     -0.00034008
110      0.00001240
111      0.00012357
112     -0.00000013
113      0.00002034
114      0.00029332
115      0.00061911
116     -0.00001098
117      0.00087209
118      0.00112752
119     -0.00005754
120      0.00001424
121      0.00006461
122     -0.00000119
123     -0.00000013
124      0.00001088
125     -0.00002884
126     -0.00013564
127      0.00000012
128     -0.00002805
129     -0.00001874
130      0.00095930
131     -0.00000269
132      0.00023384
133     -0.00010567
134     -0.00009181
135     -0.00006663
136     -0.00015025
137     -0.00000033
138      0.00000041
139     -0.00004814
140     -0.00000381
141     -0.00001459
142     -0.00000516
143      0.00002156
144      0.00001386
145      0.00003513
146     -0.00000679
147      0.00003679
Ene=    -10.75538007
Spin= Alpha
Occup=      1.00000000
1     -0.00000902
2     -0.00002829
3      0.00000173
4      0.00000467
5     -0.00005258
6     -0.00135214
7      0.00001005
8     -0.00003712
9     -0.00043700
10     -0.00001946
11     -0.00002588
12      0.00002523
13      0.00000245
14     -0.00000124
15      0.00000047
16      0.00004124
17      0.00036669
18      0.00000066
19     -0.00000651
20     -0.00004823
21     -0.00735925
22      0.00001532
23     -0.00027223
24     -0.00472066
25      0.00006525
26     -0.00003058
27     -0.00012816
28      0.00000319
29      0.00000298
30     -0.00001977
31     -0.00015649
32     -0.00058834
33     -0.00000455
34      0.00010822
35     -0.00014867
36      0.00477337
37      0.00016310
38     -0.00468247
39      0.00098024
40     -0.00022464
41      0.00006153
42      0.00011009
43     -0.00001106
44      0.00000387
45     -0.00000752
46     -0.00016968
47      0.00023212
48     -0.00000073
49      0.00005563
50     -0.00000322
51     -0.00017040
52     -0.00003950
53      0.00111310
54     -0.00025405
55      0.00011371
56     -0.00046711
57     -0.00034339
58      0.00001868
59     -0.00001144
60      0.00032424
61     -0.00007070
62     -0.00010335
63      0.99408082
64      0.03968494
65     -0.00000645
66      0.00007270
67     -0.00037075
68     -0.00280246
69      0.00006411
70     -0.00006970
71      0.00502513
72     -0.00672157
73     -0.00572840
74     -0.00493616
75     -0.00002250
76      0.00002555
77     -0.00000405
78     -0.00009123
79      0.00106677
80     -0.00000235
81     -0.00000337
82     -0.00018354
83     -0.00676526
84      0.00003400
85      0.00001666
86      0.00290304
87      0.00072527
88      0.00061240
89      0.00018286
90      0.00000271
91     -0.00000726
92      0.00000758
93     -0.00018672
94      0.00014704
95      0.00000109
96     -0.00004369
97      0.00001439
98      0.00020945
99     -0.00000012
100     -0.00126025
101     -0.00067221
102      0.00006733
103     -0.00047810
104     -0.00029364
105      0.00000591
106      0.00000101
107     -0.00028449
108     -0.00010363
109      0.00003274
110     -0.00032667
111     -0.00068161
112     -0.00000334
113     -0.00005617
114     -0.00012401
115      0.00238297
116     -0.00006670
117      0.00549326
118      0.00115557
119     -0.00025226
120     -0.00011495
121     -0.00005064
122     -0.00000273
123      0.00000253
124     -0.00001086
125     -0.00013669
126     -0.00060630
127     -0.00000003
128      0.00000293
129     -0.00000655
130      0.00439748
131     -0.00000999
132      0.00071998
133      0.00058826
134     -0.00033318
135     -0.00036125
136     -0.00037763
137      0.00000024
138     -0.00000112
139      0.00005245
140     -0.00000170
141      0.00003929
142     -0.00000789
143      0.00008757
144      0.00003608
145     -0.00003711
146      0.00023474
147      0.00166137
Ene=    -10.70343631
Spin= Alpha
Occup=      1.00000000
1      0.00007294
2      0.00027314
3      0.00001813
4     -0.00006669
5     -0.00001843
6     -0.00218805
7     -0.00008328
8     -0.00031837
9     -0.00097461
10      0.00008857
11      0.00001040
12     -0.00005919
13      0.00000329
14      0.00000434
15     -0.00005637
16     -0.00400401
17      0.00013308
18      0.00000177
19     -0.00015072
20      0.00021954
21     -0.00687671
22     -0.00004313
23      0.00342374
24     -0.00479662
25      0.00021594
26      0.00045088
27      0.00032154
28     -0.00000421
29     -0.00000189
30     -0.00007849
31      0.00008403
32      0.00024795
33      0.00000096
34     -0.00011832
35     -0.00005041
36      0.00086988
37      0.00000301
38      0.00005371
39      0.00119314
40      0.00010295
41     -0.00009030
42     -0.00004300
43      0.00000566
44      0.00000304
45     -0.00000828
46     -0.00003339
47     -0.00014516
48     -0.00000232
49     -0.00000442
50     -0.00003945
51      0.00191923
52      0.00005005
53     -0.00133014
54      0.00084366
55     -0.00005013
56      0.00001392
57     -0.00010019
58     -0.00000373
59      0.00000016
60      0.00000021
61      0.00001434
62      0.00010203
63     -0.00006942
64      0.00055883
65      0.00000426
66     -0.00016409
67     -0.00011860
68      0.00073496
69      0.00006805
70     -0.00255763
71      0.00349993
72      0.00024123
73      0.00006685
74      0.00016277
75      0.00000403
76      0.00000066
77     -0.00000743
78      0.00012645
79      0.00055652
80     -0.00000111
81     -0.00001443
82      0.00000334
83     -0.00388202
84      0.00001171
85      0.00040919
86      0.00092555
87      0.00032411
88      0.00039351
89      0.00026413
90     -0.00000166
91     -0.00000124
92     -0.00004325
93      0.00019998
94     -0.00007951
95     -0.00000106
96      0.00012870
97      0.00004327
98     -0.00160085
99      0.00002452
100     -0.00210131
101     -0.00253997
102     -0.00002341
103      0.00014054
104      0.00085227
105     -0.00000480
106     -0.00000496
107      0.00011092
108     -0.00002353
109     -0.00007799
110     -0.99412136
111     -0.04044132
112     -0.00001727
113      0.00041499
114     -0.00060414
115      0.00862006
116     -0.00015697
117      0.00953822
118     -0.00036350
119      0.00656779
120      0.00532093
121      0.00558026
122      0.00001908
123      0.00000602
124     -0.00045814
125      0.00003781
126     -0.00126234
127      0.00000112
128     -0.00011050
129     -0.00011506
130      0.00813211
131     -0.00002115
132      0.00242195
133      0.00208486
134     -0.00086691
135     -0.00043946
136     -0.00053064
137     -0.00000358
138     -0.00000090
139      0.00033121
140      0.00006779
141      0.00008497
142      0.00008940
143     -0.00009862
144      0.00005173
145     -0.00000849
146      0.00002620
147     -0.00008783
Ene=    -10.63878614
Spin= Alpha
Occup=      1.00000000
1      0.00662879
2      0.00026809
3      0.00006591
4     -0.00004380
5     -0.00024263
6      0.00176659
7     -0.00038568
8      0.00039256
9      0.00123092
10     -0.00007291
11     -0.00016627
12     -0.00052006
13     -0.00000454
14      0.00000320
15      0.00001535
16      0.99200672
17      0.04149664
18     -0.00001155
19      0.00044455
20      0.00043215
21     -0.01865624
22      0.00013552
23     -0.00018175
24     -0.00310533
25     -0.00663303
26     -0.00610103
27     -0.00623134
28     -0.00001810
29     -0.00002157
30      0.00023480
31      0.06119126
32      0.00209892
33     -0.00000866
34      0.00033824
35      0.00028692
36      0.00713595
37      0.00006412
38     -0.00316313
39     -0.00013887
40     -0.00060993
41     -0.00084584
42     -0.00071620
43      0.00001249
44      0.00000753
45     -0.00016020
46      0.00005454
47      0.00018449
48     -0.00000224
49     -0.00003121
50     -0.00002697
51     -0.00275983
52      0.00000157
53      0.00101067
54      0.00090547
55      0.00010617
56      0.00016179
57      0.00016125
58     -0.00000280
59     -0.00000198
60      0.00004757
61     -0.00010474
62     -0.00004642
63      0.00000173
64     -0.00008338
65     -0.00000139
66     -0.00000120
67     -0.00003905
68      0.00115312
69     -0.00002835
70     -0.00014608
71     -0.00200787
72     -0.00003523
73      0.00000234
74      0.00002800
75     -0.00000148
76      0.00000173
77     -0.00000554
78     -0.00005277
79     -0.00023786
80     -0.00000002
81      0.00000013
82      0.00002133
83      0.00159008
84     -0.00000253
85      0.00001920
86     -0.00032010
87     -0.00014450
88     -0.00014660
89     -0.00014374
90      0.00000002
91     -0.00000018
92     -0.00000311
93      0.00006741
94      0.00016514
95     -0.00000329
96      0.00003976
97     -0.00001102
98     -0.00270767
99      0.00003411
100     -0.00108164
101      0.00060908
102      0.00009370
103      0.00017140
104      0.00018927
105     -0.00000149
106     -0.00000107
107     -0.00002931
108     -0.00009720
109     -0.00000490
110     -0.00437538
111     -0.00046162
112      0.00000401
113     -0.00015019
114      0.00011974
115      0.00662953
116     -0.00010308
117      0.00324393
118     -0.00042360
119     -0.00013992
120     -0.00037601
121     -0.00028030
122      0.00000317
123     -0.00000020
124      0.00014777
125      0.00000201
126     -0.00004958
127     -0.00000416
128      0.00002913
129     -0.00000236
130      0.00020741
131      0.00002359
132     -0.00020801
133      0.00021132
134     -0.00004871
135      0.00003363
136      0.00006424
137      0.00000208
138      0.00000107
139      0.00000515
140     -0.00014325
141      0.00064297
142     -0.00009481
143      0.00018726
144     -0.00009273
145     -0.00017882
146     -0.00004040
147      0.00045438
Ene=    -10.63060236
Spin= Alpha
Occup=      1.00000000
1     -0.00071173
2     -0.00013559
3     -0.00001882
4     -0.00004304
5     -0.00005987
6     -0.00068926
7      0.00014118
8     -0.00025536
9     -0.00011868
10     -0.00004927
11      0.00002383
12      0.00009520
13     -0.00000885
14     -0.00000270
15     -0.00001236
16     -0.06173513
17     -0.00284693
18      0.00001425
19     -0.00037306
20     -0.00017862
21      0.00477364
22     -0.00011938
23      0.00290296
24     -0.00001481
25      0.00029404
26     -0.00003888
27      0.00006222
28      0.00001165
29      0.00000696
30     -0.00004647
31      0.99190834
32      0.04139880
33      0.00003131
34     -0.00068073
35      0.00084727
36     -0.01090135
37     -0.00004447
38      0.00205310
39      0.00215322
40     -0.00694310
41     -0.00636206
42     -0.00605182
43     -0.00002270
44      0.00000177
45      0.00019274
46     -0.00018922
47      0.00019445
48     -0.00000274
49      0.00003009
50     -0.00000442
51     -0.00012351
52      0.00002610
53      0.00034150
54      0.00247951
55      0.00009801
56     -0.00011407
57     -0.00078569
58      0.00000827
59     -0.00000907
60      0.00004787
61     -0.00021859
62     -0.00036413
63     -0.00000255
64     -0.00040837
65      0.00000143
66     -0.00005547
67      0.00000852
68      0.00074580
69     -0.00000839
70     -0.00201237
71     -0.00391412
72     -0.00014264